LAMMPS Atom File

         2376 atoms
            0 bonds
            0 angles
            0 dihedrals
            0 impropers
 
        2 atom types
        0 bond types
        0 angle types
 
     0.000000000     29.219438810 xlo xhi
     0.000000000     29.219438810 ylo yhi
     0.000000000     28.200276368 zlo zhi

Masses

        1     16.00000
        2      1.00800

Atoms

     1    1  1 -0.9040    1.155491956    0.407903070    4.332006104
     2    1  2  0.4520    1.786277990    0.517271896    5.150373839
     3    1  2  0.4520    1.899765988    0.533027146    3.675808218
     4    2  1 -0.9040   28.345646108   17.585265354   18.407355188
     5    2  2  0.4520   27.721592228   17.680909835   17.587346329
     6    2  2  0.4520   29.127766993   17.172676911   17.925189903
     7    3  1 -0.9040   27.387220430   25.319146265   16.208396263
     8    3  2  0.4520   28.319961503   25.382306538   15.870823974
     9    3  2  0.4520   27.079074656   24.602100719   15.625417149
    10    4  1 -0.9040    6.507609553   23.178523499    0.767765307
    11    4  2  0.4520    6.382704422   24.119057878    0.884832979
    12    4  2  0.4520    6.349768289   23.018326027   28.018027255
    13    5  1 -0.9040    0.315685514   22.317842878   21.182108866
    14    5  2  0.4520    0.053426513   21.445342682   21.511844777
    15    5  2  0.4520    0.958492799   22.794913581   21.775986815
    16    6  1 -0.9040   22.878336932   29.195463141   12.608363177
    17    6  2  0.4520   22.961332390   28.193710472   12.540130333
    18    6  2  0.4520   22.113675509    0.244502585   12.063883910
    19    7  1 -0.9040   20.395586666   20.728729939    2.796567364
    20    7  2  0.4520   19.518380016   20.308159834    2.977392052
    21    7  2  0.4520   21.069079387   20.040256403    2.673333943
    22    8  1 -0.9040   25.351143374   17.619385065   23.864675283
    23    8  2  0.4520   25.112991813   17.764997877   22.933015628
    24    8  2  0.4520   25.972944001   18.438190625   24.104072775
    25    9  1 -0.9040    2.790015398   23.472020525    7.578791189
    26    9  2  0.4520    3.757516216   23.662883421    7.385861683
    27    9  2  0.4520    2.293399388   24.330835544    7.711779270
    28   10  1 -0.9040   21.069702862   27.983694593    4.562100370
    29   10  2  0.4520   20.987769329   28.960456849    4.430353598
    30   10  2  0.4520   21.459366643   27.708296902    3.684193616
    31   11  1 -0.9040   13.938867299   11.746710269    4.971446025
    32   11  2  0.4520   13.075153750   11.381033927    5.285725902
    33   11  2  0.4520   14.579074072   11.544320473    5.722822529
    34   12  1 -0.9040   11.889465004   18.766644707   13.466487633
    35   12  2  0.4520   12.728694056   19.030806372   13.969709443
    36   12  2  0.4520   11.940600429   17.795376328   13.302195084
    37   13  1 -0.9040    9.101724113   29.020595169   15.359296858
    38   13  2  0.4520    9.008473073   29.038372732   14.384017360
    39   13  2  0.4520    8.198890895   28.969185555   15.711931099
    40   14  1 -0.9040   10.338985474   19.932975533   18.186001553
    41   14  2  0.4520    9.541248615   20.352003300   18.617958522
    42   14  2  0.4520   10.570966674   20.656797084   17.485586527
    43   15  1 -0.9040    1.194341266   22.383163562    1.419655479
    44   15  2  0.4520    1.098630106   22.713152224    2.330914034
    45   15  2  0.4520    0.218218679   22.204574129    1.129034565
    46   16  1 -0.9040   22.481581914   21.365843960   19.275841822
    47   16  2  0.4520   23.057864502   21.516009369   20.000876000
    48   16  2  0.4520   22.941226196   21.815090149   18.550959707
    49   17  1 -0.9040   12.824605102    3.562902099   11.450918725
    50   17  2  0.4520   13.320256010    3.955874192   10.706349707
    51   17  2  0.4520   13.317805295    2.685057752   11.577875627
    52   18  1 -0.9040   27.090824011   25.555659160   25.037745384
    53   18  2  0.4520   26.778489021   26.345923336   24.577827824
    54   18  2  0.4520   28.028128232   25.768339885   25.185128732
    55   19  1 -0.9040    0.291507307    1.581720575   18.055657879
    56   19  2  0.4520    0.660524939    1.190002333   18.898294631
    57   19  2  0.4520    0.759954577    1.144694956   17.359955180
    58   20  1 -0.9040    3.211514106    4.654172482    0.133680875
    59   20  2  0.4520    3.672233656    4.747720586    1.092449442
    60   20  2  0.4520    3.359262763    3.739929226   28.105404668
    61   21  1 -0.9040    1.250547305    3.413251253   20.038037650
    62   21  2  0.4520    1.124443875    2.806302015   19.305502473
    63   21  2  0.4520    0.615860240    4.163825288   19.939374387
    64   22  1 -0.9040   16.522049129    7.557593073   23.740023016
    65   22  2  0.4520   17.497126191    7.464993025   23.369698618
    66   22  2  0.4520   15.916646697    7.154054166   23.117697980
    67   23  1 -0.9040   11.168785222   13.963770894   11.659696564
    68   23  2  0.4520   10.206429499   13.633537874   11.683049411
    69   23  2  0.4520   11.540771362   13.519245661   12.487058962
    70   24  1 -0.9040    5.779715261   28.511117953   24.620047176
    71   24  2  0.4520    6.309804398    0.103780565   24.576797532
    72   24  2  0.4520    6.345041812   27.808014895   24.208184185
    73   25  1 -0.9040   18.937576439    6.204430421    2.984994301
    74   25  2  0.4520   18.169748366    6.790508492    3.068956777
    75   25  2  0.4520   19.506128311    6.617498298    2.296157330
    76   26  1 -0.9040   25.983481602   18.614000040   16.615228895
    77   26  2  0.4520   26.366860742   18.346874880   15.738450284
    78   26  2  0.4520   26.283680353   19.545005374   16.837501799
    79   27  1 -0.9040   19.250080444    6.760170489   19.311160813
    80   27  2  0.4520   18.919732795    7.493348032   18.758917185
    81   27  2  0.4520   20.059743778    7.156954507   19.620274547
    82   28  1 -0.9040    1.862122347    8.257847740    6.164195047
    83   28  2  0.4520    1.671064943    9.183178793    5.893691045
    84   28  2  0.4520    1.229417454    7.724010942    5.643269884
    85   29  1 -0.9040   25.915186832   24.495602294   22.581564803
    86   29  2  0.4520   26.286405502   24.934396464   21.716738063
    87   29  2  0.4520   26.325129784   25.067672896   23.325208109
    88   30  1 -0.9040   18.277066064   25.678773101   19.947100349
    89   30  2  0.4520   17.856073852   26.598980230   20.011806263
    90   30  2  0.4520   18.060981459   25.161035786   19.122262454
    91   31  1 -0.9040    1.794340692   14.914301300   22.863303002
    92   31  2  0.4520    2.744481569   15.089791955   22.902985267
    93   31  2  0.4520    1.712905324   14.085951711   23.404322961
    94   32  1 -0.9040    3.922670881   24.443963039   23.496706415
    95   32  2  0.4520    3.844737481   24.833353236   22.633056062
    96   32  2  0.4520    4.901750465   24.456297955   23.605273617
    97   33  1 -0.9040    0.231518315    3.763654569   28.046488917
    98   33  2  0.4520   28.604487474    4.329214327   27.872416488
    99   33  2  0.4520    0.901080834    4.112447033   27.409603841
   100   34  1 -0.9040   11.004816921    4.809099846   16.365369373
   101   34  2  0.4520   10.211141358    5.173643894   15.985373177
   102   34  2  0.4520   10.749676283    4.740635149   17.351169223
   103   35  1 -0.9040   21.079174093   26.443444491   13.526558065
   104   35  2  0.4520   21.291329976   26.354233991   12.525643515
   105   35  2  0.4520   20.247400626   26.977753112   13.565861406
   106   36  1 -0.9040    3.015172816   15.210149116   10.055817128
   107   36  2  0.4520    3.909962769   15.013152194   10.332950461
   108   36  2  0.4520    2.996473947   14.466402184    9.407585145
   109   37  1 -0.9040    5.356553972   27.545629383   27.406676864
   110   37  2  0.4520    5.317142833   27.564132947   26.408845358
   111   37  2  0.4520    6.323870838   27.741717427   27.439738388
   112   38  1 -0.9040   15.923251030    7.780224010    7.300978095
   113   38  2  0.4520   16.871654712    7.746109598    6.999012021
   114   38  2  0.4520   15.964675319    8.122920283    8.220725097
   115   39  1 -0.9040   18.940398073   28.256965908   13.202333688
   116   39  2  0.4520   18.735313502   28.943628733   13.858902387
   117   39  2  0.4520   19.443610945   28.743520665   12.489846639
   118   40  1 -0.9040   16.462398678    1.631078361    6.989451223
   119   40  2  0.4520   15.664485999    1.485925384    6.505380115
   120   40  2  0.4520   16.286976156    2.361568375    7.653211837
   121   41  1 -0.9040   24.749838980   10.011457933   21.051475734
   122   41  2  0.4520   25.699396063   10.307990820   21.062974782
   123   41  2  0.4520   24.263697552   10.548458641   20.350718401
   124   42  1 -0.9040   29.007499264   21.357604751   11.172853154
   125   42  2  0.4520    0.165604136   21.135268017   10.320066662
   126   42  2  0.4520   27.998408587   21.122899263   11.145784497
   127   43  1 -0.9040   10.242393629    8.238806932   26.680288373
   128   43  2  0.4520   11.138244357    8.105159211   26.956725103
   129   43  2  0.4520   10.023212644    7.511698296   26.085409685
   130   44  1 -0.9040   20.356985553    6.920832612   15.976946376
   131   44  2  0.4520   20.747992318    7.201810420   15.040483586
   132   44  2  0.4520   21.127167428    6.978750505   16.642352001
   133   45  1 -0.9040   23.396304353    9.967411780   23.767236383
   134   45  2  0.4520   23.926604606    9.676596933   22.982081808
   135   45  2  0.4520   23.061368038   10.873734807   23.489645342
   136   46  1 -0.9040   24.610978712    1.421028180    8.783391180
   137   46  2  0.4520   24.828556899    0.650916676    8.225663936
   138   46  2  0.4520   23.696187592    1.606736334    8.514568921
   139   47  1 -0.9040    1.239210523    0.222254575   20.131654186
   140   47  2  0.4520    2.147566245   29.133156428   19.964035344
   141   47  2  0.4520    0.666231334   28.663582249   20.253482162
   142   48  1 -0.9040   25.107443495   18.328650004   10.326263559
   143   48  2  0.4520   25.937891398   17.801053175   10.612267058
   144   48  2  0.4520   24.874480187   17.849784849    9.470251599
   145   49  1 -0.9040   21.861802870   22.990720307   25.387052327
   146   49  2  0.4520   21.080719334   23.704199606   25.200293594
   147   49  2  0.4520   21.886019285   22.436235759   24.535242919
   148   50  1 -0.9040   24.232903737   17.782416141    2.477703844
   149   50  2  0.4520   24.309318810   18.079157506    1.521559014
   150   50  2  0.4520   23.297793351   17.592895570    2.639392841
   151   51  1 -0.9040   21.811943322   24.122419028    8.682473909
   152   51  2  0.4520   22.494552418   23.398913144    8.693719515
   153   51  2  0.4520   20.998517176   23.592410638    8.386059971
   154   52  1 -0.9040    6.722353473   23.601746089   12.483899277
   155   52  2  0.4520    5.807725875   23.183872474   12.460324454
   156   52  2  0.4520    6.786517240   23.778955688   13.412968286
   157   53  1 -0.9040    9.417909640   12.494540903   25.713654508
   158   53  2  0.4520   10.391988449   12.656477596   25.616269270
   159   53  2  0.4520    8.978179541   13.366962949   25.535012014
   160   54  1 -0.9040    9.346123220   15.457058960    3.003554172
   161   54  2  0.4520    9.003401864   14.525412269    3.045419408
   162   54  2  0.4520    9.827260504   15.637018727    3.829951877
   163   55  1 -0.9040    5.502184154   25.420635499    5.432684480
   164   55  2  0.4520    5.144516070   25.963643132    6.184854782
   165   55  2  0.4520    5.499257403   24.512172471    5.737457404
   166   56  1 -0.9040    8.851395113   14.873920751    7.986264950
   167   56  2  0.4520    9.774066767   14.753633507    8.366421399
   168   56  2  0.4520    8.666773808   15.867945921    8.154440405
   169   57  1 -0.9040    5.825496572   24.054273393    8.110192229
   170   57  2  0.4520    6.169236292   24.489368714    8.894399221
   171   57  2  0.4520    6.102101101   23.097907919    8.204002731
   172   58  1 -0.9040   16.660283656    9.087371599   14.595767998
   173   58  2  0.4520   15.888110918    8.427964806   14.504798865
   174   58  2  0.4520   17.533101142    8.525842669   14.474775635
   175   59  1 -0.9040   26.766123927   12.219397824    0.843797244
   176   59  2  0.4520   27.153498505   12.624949818    1.654867656
   177   59  2  0.4520   26.607197058   13.028294276    0.306981842
   178   60  1 -0.9040   25.079246787   20.846410015    1.123928072
   179   60  2  0.4520   25.345302237   20.192322408    0.470513199
   180   60  2  0.4520   24.920448607   21.669416524    0.643074945
   181   61  1 -0.9040   13.838126459   24.646376419   20.048207278
   182   61  2  0.4520   12.882753951   24.758616819   19.701961410
   183   61  2  0.4520   14.241913561   25.423852908   19.630012247
   184   62  1 -0.9040    5.798052774    0.569050226   10.899201721
   185   62  2  0.4520    6.388450288    1.104227426   11.527876165
   186   62  2  0.4520    5.011964910    1.093192676   10.809846717
   187   63  1 -0.9040   23.597413942    9.588816355    4.115998289
   188   63  2  0.4520   24.146763126    8.769217888    4.330042870
   189   63  2  0.4520   22.629506872    9.288388514    4.100132487
   190   64  1 -0.9040    1.501860922   21.419058248    8.626764410
   191   64  2  0.4520    1.966754968   22.199231475    8.245012210
   192   64  2  0.4520    0.652429489   21.440618478    8.110287629
   193   65  1 -0.9040   13.604769515   16.551567103    5.243128107
   194   65  2  0.4520   13.846810133   16.735631760    4.320859705
   195   65  2  0.4520   13.844338423   15.604996908    5.418018996
   196   66  1 -0.9040    6.401537006   28.318053220   16.548138580
   197   66  2  0.4520    5.620864113   27.840487849   16.866772764
   198   66  2  0.4520    6.442527919   29.068739028   17.182534819
   199   67  1 -0.9040   28.877766446    1.226706799    0.701710581
   200   67  2  0.4520    0.143063059    0.623993275    0.082467891
   201   67  2  0.4520   29.059931902    2.156774502    0.409176270
   202   68  1 -0.9040   26.918462313   11.393087704   20.122126455
   203   68  2  0.4520   26.367515339   12.192638966   19.989623679
   204   68  2  0.4520   27.874158423   11.530644174   20.425847903
   205   69  1 -0.9040   17.131339937   26.478013556   12.049401774
   206   69  2  0.4520   17.451574867   25.669566219   12.516469617
   207   69  2  0.4520   17.809393747   27.224866485   12.369744845
   208   70  1 -0.9040   19.208368867   27.187898070    9.033233140
   209   70  2  0.4520   19.836424387   27.198991623    8.231420752
   210   70  2  0.4520   18.750219262   26.326988310    9.079268407
   211   71  1 -0.9040    6.470462087   18.245987427   24.953147563
   212   71  2  0.4520    6.192514190   19.003440879   25.497887614
   213   71  2  0.4520    5.882137204   17.527166126   25.278139703
   214   72  1 -0.9040    0.078924535   11.255897053    0.391125205
   215   72  2  0.4520   28.302385598   11.417607658    0.538801399
   216   72  2  0.4520    0.120095866   10.334801516   28.179163500
   217   73  1 -0.9040   22.309427346   12.420171514   22.334032094
   218   73  2  0.4520   23.291775042   12.545937259   22.194098925
   219   73  2  0.4520   21.943466946   13.301323134   22.084460217
   220   74  1 -0.9040   20.521469776   10.648689755   25.938212489
   221   74  2  0.4520   20.527188850   10.200110970   25.015953134
   222   74  2  0.4520   19.578575197   10.572990167   26.248876351
   223   75  1 -0.9040   18.739247315   14.383409850    9.092871854
   224   75  2  0.4520   18.429208749   13.961351513    9.942074724
   225   75  2  0.4520   19.227496279   15.169805662    9.414526993
   226   76  1 -0.9040    3.097012641   27.816641743    9.144217934
   227   76  2  0.4520    2.276886175   27.256837076    9.045278397
   228   76  2  0.4520    2.835858876   28.732107895    9.534424743
   229   77  1 -0.9040   12.699364239    6.378659749   26.323055784
   230   77  2  0.4520   13.483694135    6.639079156   25.883892310
   231   77  2  0.4520   12.364214869    5.646988435   25.641980878
   232   78  1 -0.9040   25.963416518   26.244257230   10.002790235
   233   78  2  0.4520   25.704194410   25.272172744    9.968688193
   234   78  2  0.4520   26.186582854   26.501767076    9.098558512
   235   79  1 -0.9040    2.044942903    7.067336515    0.467885125
   236   79  2  0.4520    2.256027558    7.358805792    1.362074885
   237   79  2  0.4520    2.362746277    6.140084092    0.374123618
   238   80  1 -0.9040    3.577309200   12.813897567   18.383249409
   239   80  2  0.4520    3.669685636   11.858230791   18.085042474
   240   80  2  0.4520    2.567082797   12.904348739   18.563873231
   241   81  1 -0.9040   23.600227899    1.402682214   14.723213228
   242   81  2  0.4520   23.552485555    0.728470859   13.991815100
   243   81  2  0.4520   23.383610198    2.207572748   14.219252274
   244   82  1 -0.9040   10.627457851   12.087656072    7.715908142
   245   82  2  0.4520    9.780515479   11.780430128    8.049494679
   246   82  2  0.4520   10.674444555   12.910692739    8.248716161
   247   83  1 -0.9040   23.718068579   11.362515974   18.678073569
   248   83  2  0.4520   23.990947267   11.907481558   17.889022201
   249   83  2  0.4520   22.842121905   11.696718950   18.907359425
   250   84  1 -0.9040   24.248260296    5.164846182    9.037166148
   251   84  2  0.4520   24.712548766    4.627155098    8.347967043
   252   84  2  0.4520   23.314484647    5.075295059    8.752420294
   253   85  1 -0.9040   20.790020903   10.108167573    6.353482006
   254   85  2  0.4520   20.737643036    9.256927334    6.872465677
   255   85  2  0.4520   19.976553167   10.514556823    6.709786174
   256   86  1 -0.9040    4.301238945    3.247466232   12.205475922
   257   86  2  0.4520    3.499213755    3.860179774   12.201930328
   258   86  2  0.4520    4.250461817    2.618446554   12.936310220
   259   87  1 -0.9040    1.139005120   22.873039886   18.022070335
   260   87  2  0.4520    1.201267606   22.546311191   18.901471975
   261   87  2  0.4520    1.996033448   22.494287872   17.596256941
   262   88  1 -0.9040   15.823962441   15.725631976   12.732150135
   263   88  2  0.4520   15.199856671   15.830545959   13.561559102
   264   88  2  0.4520   15.746110188   14.776552193   12.586265319
   265   89  1 -0.9040    3.732005097   28.480100097   20.240483335
   266   89  2  0.4520    4.659102320   28.879242345   20.433499790
   267   89  2  0.4520    3.817008318   27.886182827   19.381902279
   268   90  1 -0.9040   14.433297287   13.156582337   11.898356677
   269   90  2  0.4520   13.671918386   12.635448783   12.272157305
   270   90  2  0.4520   14.011101460   13.583883542   11.139100500
   271   91  1 -0.9040   18.259954028    6.543016977   14.430020589
   272   91  2  0.4520   17.498617851    6.103601418   14.853163027
   273   91  2  0.4520   19.002732956    6.522404120   15.117421140
   274   92  1 -0.9040   10.677636999    5.232954382   19.286226395
   275   92  2  0.4520   10.356061613    5.903867510   19.938619585
   276   92  2  0.4520   11.653864423    5.238583371   19.452005492
   277   93  1 -0.9040   16.387774610   13.420910030   19.128523509
   278   93  2  0.4520   16.657157174   13.448412841   18.195453452
   279   93  2  0.4520   17.129569770   13.859485430   19.558844639
   280   94  1 -0.9040    5.644783506   13.746309202   25.971334279
   281   94  2  0.4520    5.498976044   13.087449327   26.658007933
   282   94  2  0.4520    5.932666807   13.288065106   25.139445894
   283   95  1 -0.9040   28.235700048    4.920496568   19.157193799
   284   95  2  0.4520   27.383868921    5.079665636   19.599701699
   285   95  2  0.4520   28.526057924    5.771714479   18.797994690
   286   96  1 -0.9040   18.518335110   18.913134621    1.624758663
   287   96  2  0.4520   19.321030605   19.271417623    1.135831791
   288   96  2  0.4520   17.760262100   19.378239467    1.171805680
   289   97  1 -0.9040   21.780165841   14.940202437    0.907952700
   290   97  2  0.4520   21.549586685   14.064607091    1.262970444
   291   97  2  0.4520   21.181307687   15.020375088    0.179191365
   292   98  1 -0.9040    5.153367466    7.675217345   27.065703313
   293   98  2  0.4520    4.910178260    8.051841646   26.161380479
   294   98  2  0.4520    5.419309119    6.727392725   27.003055320
   295   99  1 -0.9040    9.787268998    7.003450240   21.281506641
   296   99  2  0.4520    8.892416470    7.361563170   21.098862728
   297   99  2  0.4520    9.810351267    6.672058182   22.180631379
   298  100  1 -0.9040   15.905199159   17.200871416    0.815452669
   299  100  2  0.4520   15.233008306   17.662549202    0.277027630
   300  100  2  0.4520   16.304036436   17.931076675    1.348592905
   301  101  1 -0.9040   15.627546028   24.005048188   13.603163632
   302  101  2  0.4520   16.567670398   24.491529640   13.491739480
   303  101  2  0.4520   15.058503687   24.656472669   14.060960619
   304  102  1 -0.9040   12.954325035   18.198085228    7.205505018
   305  102  2  0.4520   13.259660162   17.552025649    6.443241185
   306  102  2  0.4520   13.756955071   18.665365511    7.482609213
   307  103  1 -0.9040   21.428092690   17.714154164   11.504260921
   308  103  2  0.4520   22.240644025   17.387990648   12.010621797
   309  103  2  0.4520   20.663308699   17.420949986   12.008639220
   310  104  1 -0.9040   19.174506618    3.016859402    6.620801592
   311  104  2  0.4520   19.207503083    2.501648093    7.446611100
   312  104  2  0.4520   18.293938826    2.877945215    6.304322863
   313  105  1 -0.9040    0.446531737   26.308500565   25.362674380
   314  105  2  0.4520    0.313412553   25.695026393   26.115774122
   315  105  2  0.4520    1.029246308   27.119868182   25.704039508
   316  106  1 -0.9040   14.493182485    5.301001588   12.943953428
   317  106  2  0.4520   13.865616810    4.789693000   12.375921599
   318  106  2  0.4520   15.331196449    4.800557904   13.026858107
   319  107  1 -0.9040    6.143583100    6.665681890   13.640078937
   320  107  2  0.4520    6.859329106    5.904005868   13.624078323
   321  107  2  0.4520    5.762881318    6.516035595   12.732450260
   322  108  1 -0.9040    5.436760223   21.714300101   14.842344805
   323  108  2  0.4520    6.050423080   21.000114664   14.968091592
   324  108  2  0.4520    5.936179530   22.551649062   15.085490123
   325  109  1 -0.9040   20.230160120    0.487108916   11.366740368
   326  109  2  0.4520   19.953629246    0.532203988   10.419868852
   327  109  2  0.4520   20.274886317    1.402111009   11.641769348
   328  110  1 -0.9040    8.568217254   29.167240438    4.383245142
   329  110  2  0.4520    8.282151888   28.837002994    5.243695774
   330  110  2  0.4520    7.831337131   29.061421072    3.751355942
   331  111  1 -0.9040    4.515482879    8.422042786   24.607172757
   332  111  2  0.4520    4.494536783    9.349592119   24.764850919
   333  111  2  0.4520    3.524921974    8.221619705   24.535000209
   334  112  1 -0.9040    8.342613052   25.151556860    4.671593608
   335  112  2  0.4520    8.237938273   24.221550602    4.996314705
   336  112  2  0.4520    7.468705964   25.586738581    4.878618231
   337  113  1 -0.9040    5.061242445   10.749013591    9.624570077
   338  113  2  0.4520    4.332617278   10.186029750    9.298484828
   339  113  2  0.4520    5.776729725   10.380807552    9.031344710
   340  114  1 -0.9040   26.252059477   11.001727245   26.645700430
   341  114  2  0.4520   25.582569823   11.693848226   26.308997374
   342  114  2  0.4520   26.456480355   11.431555835   27.493423404
   343  115  1 -0.9040   20.631488533   16.527620267    9.120794160
   344  115  2  0.4520   20.829570244   17.297053760    9.779226157
   345  115  2  0.4520   21.378671448   15.917683753    9.235081179
   346  116  1 -0.9040    8.032076089    4.840564772    5.546306930
   347  116  2  0.4520    7.714810885    4.300619248    6.381421675
   348  116  2  0.4520    7.492180517    4.565541563    4.765292140
   349  117  1 -0.9040   15.302206020   15.116320910   22.901821197
   350  117  2  0.4520   15.016704859   15.519200073   22.078393453
   351  117  2  0.4520   14.996121580   15.746344675   23.602960091
   352  118  1 -0.9040    9.460909364   22.188593685   12.265736349
   353  118  2  0.4520   10.291311813   22.742705025   12.259764519
   354  118  2  0.4520    8.653501460   22.807757547   12.286276701
   355  119  1 -0.9040   12.240760261   27.398171715    1.412081872
   356  119  2  0.4520   12.773152429   27.850855924    2.148356448
   357  119  2  0.4520   11.859875799   26.623944330    1.909743239
   358  120  1 -0.9040    0.537083455   25.929529193   14.927557546
   359  120  2  0.4520    0.617401654   26.842943485   14.582830127
   360  120  2  0.4520    0.885793520   25.399865910   14.203768105
   361  121  1 -0.9040    0.693383836   13.014042906   16.425028273
   362  121  2  0.4520    0.537971439   12.647778093   17.321756519
   363  121  2  0.4520    0.892154720   14.003597039   16.568902900
   364  122  1 -0.9040   19.551777167    9.911024025   13.789370471
   365  122  2  0.4520   19.579408654   10.186505188   12.852685455
   366  122  2  0.4520   20.176572388    9.158820198   13.916098832
   367  123  1 -0.9040    0.458661525    1.706734924   24.514760220
   368  123  2  0.4520   28.907069869    1.465211507   25.071748918
   369  123  2  0.4520    0.427391069    2.692608769   24.501399299
   370  124  1 -0.9040   22.651344135    8.709121299   26.479111231
   371  124  2  0.4520   22.735823390    9.461953062   25.864487143
   372  124  2  0.4520   21.697591987    8.509583832   26.420230917
   373  125  1 -0.9040   25.373077379   16.508221269    8.118299894
   374  125  2  0.4520   26.270814156   16.721682660    8.040138147
   375  125  2  0.4520   25.127304930   15.948311023    7.377167765
   376  126  1 -0.9040    9.669128677   13.183482764   22.002704613
   377  126  2  0.4520    9.324555148   12.292441595   22.316342066
   378  126  2  0.4520    9.463562560   13.768743302   22.747465108
   379  127  1 -0.9040    0.728084388    7.672464888    9.607424048
   380  127  2  0.4520    0.591954025    7.228514604    8.728453586
   381  127  2  0.4520    0.457199480    7.047644012   10.338379016
   382  128  1 -0.9040   18.826942712   11.203011684   11.597335237
   383  128  2  0.4520   19.068424725   12.150277252   11.885861245
   384  128  2  0.4520   17.856231299   11.064094081   11.919380113
   385  129  1 -0.9040   25.423720437   14.164291798   20.556991792
   386  129  2  0.4520   26.368064970   14.305988424   20.642861023
   387  129  2  0.4520   25.181117359   13.928775491   21.463725762
   388  130  1 -0.9040   14.915087333    3.874669103   25.417562631
   389  130  2  0.4520   15.077040225    2.971412404   25.095417511
   390  130  2  0.4520   15.742920069    4.024101132   25.892977029
   391  131  1 -0.9040   12.350413944   27.506779523   16.932915279
   392  131  2  0.4520   11.785681423   28.361991125   17.058522850
   393  131  2  0.4520   12.319341935   27.286280981   15.958368046
   394  132  1 -0.9040   23.817718603   27.940365835    3.869226740
   395  132  2  0.4520   23.209959939   28.149211067    4.602161719
   396  132  2  0.4520   23.337062209   27.769741036    3.060057328
   397  133  1 -0.9040   11.884788436   27.274582613    8.935324012
   398  133  2  0.4520   12.268906835   28.157178085    9.232209553
   399  133  2  0.4520   12.623184342   26.748277640    8.526553646
   400  134  1 -0.9040   14.461101461    5.808272278   22.383919764
   401  134  2  0.4520   13.858227174    5.519596036   21.652647395
   402  134  2  0.4520   14.459173350    5.100286181   23.175392182
   403  135  1 -0.9040   17.612675255   20.372858375   23.826689663
   404  135  2  0.4520   18.350398235   20.082924636   23.285115512
   405  135  2  0.4520   17.981653473   20.163962974   24.732325962
   406  136  1 -0.9040    2.127626815   12.028045056    3.478987492
   407  136  2  0.4520    1.586762901   11.827827360    4.271856274
   408  136  2  0.4520    2.656605010   12.912772701    3.730136140
   409  137  1 -0.9040   13.350762568   15.939407861   20.407123742
   410  137  2  0.4520   13.955953940   16.754388210   20.465025230
   411  137  2  0.4520   12.417230091   16.253436624   20.352962217
   412  138  1 -0.9040   16.160611707    1.092432509   18.619287369
   413  138  2  0.4520   15.247637606    1.174596437   18.251684359
   414  138  2  0.4520   16.390648375    1.942802466   19.068374743
   415  139  1 -0.9040   22.310642614   14.059984346   12.190224774
   416  139  2  0.4520   22.785376167   14.326231622   11.335522815
   417  139  2  0.4520   22.416977879   14.847544019   12.799564948
   418  140  1 -0.9040   13.398845431    8.465081321   18.893998537
   419  140  2  0.4520   12.455274314    8.746977524   18.984523575
   420  140  2  0.4520   13.892612859    9.066823478   19.459301038
   421  141  1 -0.9040   22.895043593   23.021547700   11.236609504
   422  141  2  0.4520   22.604481095   22.130569441   11.078393821
   423  141  2  0.4520   23.140220452   23.077771238   12.217617119
   424  142  1 -0.9040   19.364283953   24.120571663   16.060918216
   425  142  2  0.4520   20.113286750   24.726195444   16.214565170
   426  142  2  0.4520   19.693568409   23.202854049   16.260406311
   427  143  1 -0.9040    9.035970316   21.997667874    7.890270703
   428  143  2  0.4520    9.861017308   21.719633162    8.296553924
   429  143  2  0.4520    8.320683560   22.082083915    8.583641177
   430  144  1 -0.9040   18.730196287   22.482301147   10.142239852
   431  144  2  0.4520   18.503824319   21.519999475   10.384692526
   432  144  2  0.4520   19.164065505   22.432890603    9.227805233
   433  145  1 -0.9040    3.081094203    8.046544893    2.892981191
   434  145  2  0.4520    3.441226767    8.618334894    2.129863530
   435  145  2  0.4520    3.796869785    7.719790847    3.385692708