LAMMPS Atom File

        12000 atoms
            0 bonds
            0 angles
            0 dihedrals
            0 impropers
 
        2 atom types
        0 bond types
        0 angle types
 
     0.000000000     50.132205031 xlo xhi
     0.000000000     50.132205031 ylo yhi
     0.000000000     47.756381947 zlo zhi

Masses

        1     16.00000
        2      1.00800

Atoms

     1    1  1 -0.9040   22.279880016    8.344624132   32.939635988
     2    1  2  0.4520   22.327115258    8.240111044   31.930711961
     3    1  2  0.4520   23.064981876    8.900938042   33.128075373
     4    2  1 -0.9040   24.813727520   11.329957726   26.855198203
     5    2  2  0.4520   24.213319683   12.166424432   26.569211895
     6    2  2  0.4520   25.375708995   11.246360006   26.062939401
     7    3  1 -0.9040   29.248996383   41.298734568   37.324265134
     8    3  2  0.4520   28.534155178   41.089783401   38.102354036
     9    3  2  0.4520   28.605140040   41.466481894   36.638144861
    10    4  1 -0.9040    2.597371103   43.681482680   23.405872494
    11    4  2  0.4520    2.158557453   43.501842698   24.250720236
    12    4  2  0.4520    2.622723884   42.778859884   22.974616012
    13    5  1 -0.9040   12.295186824   27.854761329   18.656548872
    14    5  2  0.4520   11.307481448   27.881318774   18.669216538
    15    5  2  0.4520   12.506278177   27.104300455   19.348335498
    16    6  1 -0.9040    4.235240576    5.426740172   33.468953203
    17    6  2  0.4520    4.196901571    6.118475058   34.249251738
    18    6  2  0.4520    3.276078838    5.281845112   33.199948052
    19    7  1 -0.9040   17.968479637   10.048126445   35.330236594
    20    7  2  0.4520   18.762516265    9.623683732   34.931362870
    21    7  2  0.4520   18.284429175   10.922444718   35.663286673
    22    8  1 -0.9040    0.477880077   12.555146173   28.723852350
    23    8  2  0.4520    0.191255308   13.510337864   28.939247148
    24    8  2  0.4520   49.861977673   12.040072340   28.300654867
    25    9  1 -0.9040   16.134708053   33.423985262    6.028109502
    26    9  2  0.4520   16.432511573   32.481524231    5.988013847
    27    9  2  0.4520   16.906935388   33.978569106    5.679280357
    28   10  1 -0.9040   12.752055888   24.071252723   16.619134182
    29   10  2  0.4520   13.473079934   24.175744483   17.288338632
    30   10  2  0.4520   13.108376415   24.454960894   15.755074262
    31   11  1 -0.9040   16.058540557   10.317788663    7.808954799
    32   11  2  0.4520   16.065344393   11.312115195    7.684441070
    33   11  2  0.4520   16.491529436    9.869730138    7.004327564
    34   12  1 -0.9040   48.410222016   34.396406058   36.651033586
    35   12  2  0.4520   49.347166285   34.269132885   36.612563818
    36   12  2  0.4520   48.295239948   35.147118454   37.304416028
    37   13  1 -0.9040   20.486269215   49.078286981   34.929306659
    38   13  2  0.4520   21.188102213   49.647408526   34.612152599
    39   13  2  0.4520   20.894760284   48.309473586   35.364907421
    40   14  1 -0.9040    2.466057153   42.812066298   10.248287008
    41   14  2  0.4520    2.052961203   43.253228017   11.092132354
    42   14  2  0.4520    3.447557071   42.754827560   10.318456357
    43   15  1 -0.9040   37.092502208    7.797974754    5.491691712
    44   15  2  0.4520   36.394664803    7.890011680    6.188098852
    45   15  2  0.4520   37.739539402    8.488177180    5.678246936
    46   16  1 -0.9040   14.556316689   11.690699090   32.460080652
    47   16  2  0.4520   15.212336743   11.946556077   33.166780873
    48   16  2  0.4520   14.992145519   12.013710798   31.600607282
    49   17  1 -0.9040   36.690866041   48.365243009    5.683243647
    50   17  2  0.4520   35.971625678   48.328616527    6.297832953
    51   17  2  0.4520   37.413845860   48.849717201    6.220720709
    52   18  1 -0.9040    2.367865061   37.480644869   26.337110752
    53   18  2  0.4520    2.211336938   37.768705546   27.301707280
    54   18  2  0.4520    1.411171610   37.376739141   25.948230916
    55   19  1 -0.9040   44.072737110   11.574532880   33.361540721
    56   19  2  0.4520   43.640543861   12.142545217   32.623832065
    57   19  2  0.4520   44.526726356   10.817574943   32.862690420
    58   20  1 -0.9040   34.997616323   18.788023483   39.014858398
    59   20  2  0.4520   35.861621021   18.652178753   38.598123256
    60   20  2  0.4520   34.826117690   19.722938395   38.824018863
    61   21  1 -0.9040   48.293289601   39.512371093   18.145071738
    62   21  2  0.4520   47.796466447   38.742640774   17.645727149
    63   21  2  0.4520   47.635395707   39.967257630   18.691613895
    64   22  1 -0.9040   47.438828866   11.642976405   13.121060210
    65   22  2  0.4520   47.846592586   12.579348569   13.093868683
    66   22  2  0.4520   48.174123868   10.957080073   12.958602544
    67   23  1 -0.9040    8.767613370   13.171353820   41.137655023
    68   23  2  0.4520    8.687964412   12.844730527   40.208428104
    69   23  2  0.4520    8.598344685   14.150367505   41.143827569
    70   24  1 -0.9040    7.552124022    0.568820501   23.166698532
    71   24  2  0.4520    8.408580615    0.121344255   23.310480409
    72   24  2  0.4520    6.844562243   50.053287528   23.360102108
    73   25  1 -0.9040   14.363725122   19.177685279    8.315577065
    74   25  2  0.4520   14.318899748   19.709503885    9.147885037
    75   25  2  0.4520   13.446062605   18.982578444    8.056610377
    76   26  1 -0.9040   34.503426341   22.717734865    0.514731350
    77   26  2  0.4520   34.994854996   22.976100673    1.303643879
    78   26  2  0.4520   34.101080809   23.616742552    0.296723887
    79   27  1 -0.9040    8.511563500   32.967118814   32.125829468
    80   27  2  0.4520    8.352822812   32.719244137   31.149876268
    81   27  2  0.4520    9.404767014   32.640529795   32.318293632
    82   28  1 -0.9040   30.779104333    6.524918012   24.210050993
    83   28  2  0.4520   31.545531735    6.599653282   24.853238643
    84   28  2  0.4520   30.039058803    6.304369389   24.776893928
    85   29  1 -0.9040   40.112793231    6.642393525   15.086196730
    86   29  2  0.4520   39.498428068    5.893136490   15.127374934
    87   29  2  0.4520   40.904315332    6.299103163   15.593015450
    88   30  1 -0.9040   25.505518247   34.073430731   20.076043718
    89   30  2  0.4520   25.505113778   34.397948369   19.127618426
    90   30  2  0.4520   24.857322532   34.763598014   20.402164569
    91   31  1 -0.9040   24.238376782   41.656547278   18.581182444
    92   31  2  0.4520   24.773687753   41.513476900   17.775565513
    93   31  2  0.4520   23.439218622   42.153863400   18.296119291
    94   32  1 -0.9040    4.391174470   37.472270083   39.048657832
    95   32  2  0.4520    3.841314858   37.432970569   39.914360922
    96   32  2  0.4520    4.184317761   38.407236669   38.786567388
    97   33  1 -0.9040   48.714458125   23.133201322   42.857707138
    98   33  2  0.4520   48.454354555   23.331385088   41.956278633
    99   33  2  0.4520   48.633807501   23.971422870   43.330244060
   100   34  1 -0.9040   14.193790060   46.724981202    7.258921037
   101   34  2  0.4520   13.396780349   46.411680851    6.735889855
   102   34  2  0.4520   15.039242622   46.271413100    7.038599581
   103   35  1 -0.9040   32.358165235   17.803885435   10.292186106
   104   35  2  0.4520   32.440562344   17.916276393   11.260613219
   105   35  2  0.4520   33.209194139   18.272145937   10.034163994
   106   36  1 -0.9040   42.344709685   43.245939277    5.430687239
   107   36  2  0.4520   42.935973284   43.753189794    4.794712648
   108   36  2  0.4520   43.028904903   42.765479562    6.042367909
   109   37  1 -0.9040   34.760011409   40.327618012   44.029343519
   110   37  2  0.4520   35.620009252   39.969990502   43.532210084
   111   37  2  0.4520   34.567358856   41.060368657   43.348125463
   112   38  1 -0.9040   22.446416162   17.427553373    8.333075488
   113   38  2  0.4520   21.712595759   16.822330009    8.026896236
   114   38  2  0.4520   23.075322895   17.284372004    7.602621535
   115   39  1 -0.9040   41.618133982   45.137175050   36.489286367
   116   39  2  0.4520   41.638319026   45.410929035   35.548953470
   117   39  2  0.4520   40.681918683   45.167573681   36.757616870
   118   40  1 -0.9040   44.338080744   22.554486337    8.537297188
   119   40  2  0.4520   44.651271190   21.683950508    8.628498295
   120   40  2  0.4520   43.567929547   22.341554924    8.030314920
   121   41  1 -0.9040    6.285405022    6.939149798   36.570113242
   122   41  2  0.4520    5.411279212    7.027785213   36.148122701
   123   41  2  0.4520    6.354986818    6.012917657   36.764884443
   124   42  1 -0.9040    7.012682974    7.491149703   45.122825135
   125   42  2  0.4520    7.381007539    8.279570343   45.675515732
   126   42  2  0.4520    6.792938149    6.894550744   45.818843467
   127   43  1 -0.9040    1.670234938   18.355592853   23.229148873
   128   43  2  0.4520    2.124892109   18.515365405   22.335575287
   129   43  2  0.4520    1.168491771   17.537266006   23.188005926
   130   44  1 -0.9040    9.605998118   16.153522186    6.085739327
   131   44  2  0.4520   10.033096244   17.034477899    5.831030724
   132   44  2  0.4520    9.494322128   15.611490508    5.203873546
   133   45  1 -0.9040   46.884642309   17.180997439   18.374205696
   134   45  2  0.4520   47.307911682   16.391972690   18.779092325
   135   45  2  0.4520   45.935413773   17.136356733   18.660607268
   136   46  1 -0.9040    5.853254479    4.634186489   26.405903667
   137   46  2  0.4520    5.964894664    3.681332700   26.216876796
   138   46  2  0.4520    5.039249171    4.943885914   25.860093229
   139   47  1 -0.9040   10.395258479   47.319479622   38.872191562
   140   47  2  0.4520   10.521101813   46.639577650   38.197051983
   141   47  2  0.4520   10.338572020   48.174012648   38.411236102
   142   48  1 -0.9040   35.324840886   12.054012968    2.051594078
   143   48  2  0.4520   34.761049214   12.794627506    2.445300452
   144   48  2  0.4520   34.761593596   11.800053519    1.250325699
   145   49  1 -0.9040   18.721084477   25.951051920   43.315951736
   146   49  2  0.4520   18.079670517   25.248887460   42.953825090
   147   49  2  0.4520   19.028327728   25.628571510   44.194368716
   148   50  1 -0.9040   30.765361477   23.350624068   39.007680243
   149   50  2  0.4520   30.832398996   23.771860205   38.100418718
   150   50  2  0.4520   30.954188487   22.411728780   38.862456848
   151   51  1 -0.9040   23.963074546   27.644234535   27.736188994
   152   51  2  0.4520   24.641160913   28.248031561   28.067228383
   153   51  2  0.4520   23.897002353   27.959996731   26.797888190
   154   52  1 -0.9040   28.128667160   28.934349318   16.993112635
   155   52  2  0.4520   28.673753297   28.361866721   16.410968924
   156   52  2  0.4520   27.178713149   28.609243485   16.791001310
   157   53  1 -0.9040   34.017688287   34.347842643    8.393909817
   158   53  2  0.4520   33.158999283   34.617249950    8.756176418
   159   53  2  0.4520   34.458707068   35.182697337    8.057858043
   160   54  1 -0.9040   41.048811930   28.523846877   25.404137116
   161   54  2  0.4520   41.653214210   28.211124811   26.065860925
   162   54  2  0.4520   40.949774243   27.708582677   24.832595828
   163   55  1 -0.9040   30.596637153   43.021005036   20.245898203
   164   55  2  0.4520   30.476046287   43.950047882   20.030172677
   165   55  2  0.4520   31.408404144   42.832218312   19.673207634
   166   56  1 -0.9040   11.656231161   36.791528222   28.706163266
   167   56  2  0.4520   11.762817308   36.306570803   27.843086542
   168   56  2  0.4520   10.871688022   36.427855548   29.148016723
   169   57  1 -0.9040   34.843627819    1.016347062    2.878785235
   170   57  2  0.4520   35.770271203    1.259848896    2.783449587
   171   57  2  0.4520   34.373828067    1.875046583    2.722693084
   172   58  1 -0.9040   11.593069176   49.018956927   24.966842613
   173   58  2  0.4520   12.544715016   48.921228964   25.249101692
   174   58  2  0.4520   11.114596839   48.531313862   25.686080011
   175   59  1 -0.9040    2.770880865   11.773967616   27.201371551
   176   59  2  0.4520    1.861170125   11.858192252   27.540725824
   177   59  2  0.4520    3.408272438   12.462679364   27.578114327
   178   60  1 -0.9040   20.018158730   35.879257908   19.993233516
   179   60  2  0.4520   19.241024159   36.204720224   19.508895799
   180   60  2  0.4520   19.600320996   35.363679436   20.696482520
   181   61  1 -0.9040   38.839432697   49.522502859    7.154041166
   182   61  2  0.4520   39.132543906   49.929296688    8.027420448
   183   61  2  0.4520   39.582456442   48.870709434    6.955132145
   184   62  1 -0.9040   41.078828947   43.153552468   20.838345674
   185   62  2  0.4520   40.576219851   43.652245985   20.146910949
   186   62  2  0.4520   40.426000066   42.513468965   21.257411210
   187   63  1 -0.9040   28.286239592   16.049055588   35.554069013
   188   63  2  0.4520   28.126322662   16.967207174   35.881828721
   189   63  2  0.4520   28.584854271   16.012562739   34.638263588
   190   64  1 -0.9040   48.878653610    3.604193771   42.345979268
   191   64  2  0.4520   49.185441139    4.617607271   42.280872419
   192   64  2  0.4520   47.921687280    3.630231105   42.473103484
   193   65  1 -0.9040   25.214055023   11.455321885    5.331810313
   194   65  2  0.4520   25.151381339   10.933282624    6.180001293
   195   65  2  0.4520   25.061647413   12.424790661    5.595932285
   196   66  1 -0.9040   28.077973765   23.541852106   39.683048366
   197   66  2  0.4520   28.016721918   22.574925597   39.506848952
   198   66  2  0.4520   28.977791915   23.808647227   39.339491973
   199   67  1 -0.9040   49.140377898   42.926596161   20.218411072
   200   67  2  0.4520   49.273449157   43.812359207   20.588787840
   201   67  2  0.4520   49.407972702   43.182547078   19.253611245
   202   68  1 -0.9040   35.018589033   37.401069636   36.582948188
   203   68  2  0.4520   34.597684786   38.183324498   36.192999089
   204   68  2  0.4520   35.063229211   36.797955181   35.806489084
   205   69  1 -0.9040   47.247082756   48.168007652   35.267704015
   206   69  2  0.4520   47.694366901   47.652913235   36.015486746
   207   69  2  0.4520   47.510342093   47.588023174   34.437245510
   208   70  1 -0.9040    0.623580503   36.055381631   17.418801107
   209   70  2  0.4520    0.654196874   35.196838008   16.960095855
   210   70  2  0.4520    0.798019946   36.689232006   16.646614365
   211   71  1 -0.9040   35.791963392   19.466938202   42.007718364
   212   71  2  0.4520   35.362622946   19.480736870   41.155369452
   213   71  2  0.4520   36.596652865   18.909715633   41.801893865
   214   72  1 -0.9040   17.223992459   27.501741917   31.870863485
   215   72  2  0.4520   17.563805108   26.995110779   32.651966210
   216   72  2  0.4520   17.369805728   28.490807792   32.043592560
   217   73  1 -0.9040   14.106265437   32.244452577   13.285710151
   218   73  2  0.4520   13.682640242   32.909164788   12.693676884
   219   73  2  0.4520   13.915486200   32.652986104   14.201672083
   220   74  1 -0.9040   16.145112683   30.067793657   21.598226951
   221   74  2  0.4520   15.626304777   30.002373341   22.449135017
   222   74  2  0.4520   16.144806684   29.225926045   21.201126458
   223   75  1 -0.9040    7.299511135   36.925906414   11.609486152
   224   75  2  0.4520    6.428261437   37.364659608   11.570616685
   225   75  2  0.4520    7.619026535   37.292457673   12.454414987
   226   76  1 -0.9040   21.051547374    8.724658405   10.487372121
   227   76  2  0.4520   21.006435975    7.870503507   10.030371005
   228   76  2  0.4520   20.269314125    8.700267651   11.110610414
   229   77  1 -0.9040   20.126303573   24.581492880   31.208006104
   230   77  2  0.4520   20.427252667   25.176808401   31.938554814
   231   77  2  0.4520   20.227360259   24.977506259   30.313649070
   232   78  1 -0.9040   12.095886304   43.022584770   28.928410684
   233   78  2  0.4520   11.442676394   42.882886364   29.627542744
   234   78  2  0.4520   12.211536732   43.974869738   28.926598348
   235   79  1 -0.9040   42.633919208    9.594741679   34.889862686
   236   79  2  0.4520   43.310661456    8.920957576   34.909406686
   237   79  2  0.4520   43.105391175   10.355609969   34.393429684
   238   80  1 -0.9040   32.624266919   33.215083263    2.281214905
   239   80  2  0.4520   31.708442371   33.499668006    2.137840871
   240   80  2  0.4520   32.794692013   32.462870554    1.735002930
   241   81  1 -0.9040   16.508170465   38.152047803   29.492308670
   242   81  2  0.4520   17.109310193   38.236686617   28.703124403
   243   81  2  0.4520   16.008406265   37.270377452   29.319675569
   244   82  1 -0.9040   18.633014023    0.052412370   36.997958814
   245   82  2  0.4520   19.093664791   49.323854474   36.968158345
   246   82  2  0.4520   17.744264095   49.993962692   37.350869074
   247   83  1 -0.9040    3.857954006   27.355508379    4.859804463
   248   83  2  0.4520    3.024368650   27.890648630    5.052975227
   249   83  2  0.4520    3.606750433   26.440777749    5.113529835
   250   84  1 -0.9040   38.779481855   39.640188068    5.259849571
   251   84  2  0.4520   38.809432916   39.150327133    4.423531546
   252   84  2  0.4520   39.643434529   40.192208005    5.348798711
   253   85  1 -0.9040   27.524189827   31.317669615   43.522942678
   254   85  2  0.4520   27.050597744   30.756356101   44.180633763
   255   85  2  0.4520   28.381242879   30.917108665   43.532068964
   256   86  1 -0.9040    5.631660764   21.414971174   11.921674621
   257   86  2  0.4520    5.939338698   20.546307831   11.657461767
   258   86  2  0.4520    6.003085227   21.991889096   11.212474104
   259   87  1 -0.9040   29.216703343   43.463700253   33.648166190
   260   87  2  0.4520   28.404794628   43.164232428   34.127598856
   261   87  2  0.4520   28.962800113   43.553924907   32.720193773
   262   88  1 -0.9040   18.490659778   22.733290117   24.970291177
   263   88  2  0.4520   19.235259652   23.291170516   24.537163074
   264   88  2  0.4520   17.801014120   23.376000041   25.132154589
   265   89  1 -0.9040   35.615176181   44.251745429    1.001007557
   266   89  2  0.4520   35.562807342   45.189458138    0.531721267
   267   89  2  0.4520   34.744170699   43.996079491    1.291571157
   268   90  1 -0.9040   32.278580104   10.378612653   12.161145699
   269   90  2  0.4520   32.908870156   10.931041807   11.550887838
   270   90  2  0.4520   31.654106641   10.004165336   11.502564996
   271   91  1 -0.9040   28.914577575   49.400016960   20.084232431
   272   91  2  0.4520   28.370667981   48.597565698   19.985198567
   273   91  2  0.4520   29.228353692   49.377831395   21.014343155
   274   92  1 -0.9040   22.132805540   15.007263778   23.003155765
   275   92  2  0.4520   21.911565476   15.879170169   22.490928969
   276   92  2  0.4520   22.131237117   14.237597043   22.335910096
   277   93  1 -0.9040   10.937264128   43.880211256   33.400165807
   278   93  2  0.4520   10.974173494   43.678594875   34.370342200
   279   93  2  0.4520   10.325478805   44.661395630   33.481767147
   280   94  1 -0.9040    9.753411818   45.029778348    4.382825425
   281   94  2  0.4520    9.488159793   44.957652588    3.418515542
   282   94  2  0.4520    8.960059509   45.205863275    4.967875696
   283   95  1 -0.9040   34.325431611    3.765236116   14.580091331
   284   95  2  0.4520   34.114882293    3.882029057   13.658727249
   285   95  2  0.4520   35.298643444    3.496343940   14.511644911
   286   96  1 -0.9040   41.079876892    9.097839901   45.345650681
   287   96  2  0.4520   40.218656710    8.772839947   44.947823099
   288   96  2  0.4520   41.076026372    8.983932909   46.323928229
   289   97  1 -0.9040   31.984875702   19.605337868   25.470671483
   290   97  2  0.4520   32.400230002   19.886278297   24.678326068
   291   97  2  0.4520   31.096348424   19.185584962   25.215617536
   292   98  1 -0.9040   11.136828766   19.391925641    1.537828502
   293   98  2  0.4520   11.364896257   20.359295423    1.437522970
   294   98  2  0.4520   12.014597049   18.978452234    1.728092420
   295   99  1 -0.9040   26.240808543   15.430018777   19.368709466
   296   99  2  0.4520   25.840784269   14.969204981   18.536673667
   297   99  2  0.4520   27.184399523   15.571833684   19.112426163
   298  100  1 -0.9040   32.320515021   44.299459127   39.308308476
   299  100  2  0.4520   32.614004189   43.742850730   38.597826850
   300  100  2  0.4520   31.653013561   43.743476352   39.786536095
   301  101  1 -0.9040   43.765621356   33.445669830   34.977894475
   302  101  2  0.4520   43.886928601   32.981756104   35.919893127
   303  101  2  0.4520   43.024781265   33.027059323   34.438714368
   304  102  1 -0.9040    9.772412513   10.067831994   21.667023752
   305  102  2  0.4520    9.052295647   10.812298054   21.709798754
   306  102  2  0.4520   10.634034026   10.474780210   21.323339335
   307  103  1 -0.9040    7.726589926   18.568886423   20.935144729
   308  103  2  0.4520    7.901710584   18.527962441   19.990514103
   309  103  2  0.4520    8.611376132   18.571497858   21.419021523
   310  104  1 -0.9040   35.485144489   21.931406660   46.010633398
   311  104  2  0.4520   34.601889392   21.648716277   45.642807113
   312  104  2  0.4520   35.284989286   22.361825583   46.927812786
   313  105  1 -0.9040   33.690163031   14.169955594    2.684398068
   314  105  2  0.4520   34.189874728   15.009025311    2.815306499
   315  105  2  0.4520   32.851768093   14.302558554    3.215127742
   316  106  1 -0.9040    2.083992978   27.767733006   47.181208860
   317  106  2  0.4520    2.232261758   28.714129427   47.472783098
   318  106  2  0.4520    1.122861420   27.740371894   47.019723449
   319  107  1 -0.9040    7.542223675   22.883685848    7.001081720
   320  107  2  0.4520    8.489815581   23.065694147    7.407328341
   321  107  2  0.4520    7.613879583   22.013959537    6.540518762
   322  108  1 -0.9040   35.725469683   35.137207859   12.693496746
   323  108  2  0.4520   35.595195143   35.235800449   13.654115205
   324  108  2  0.4520   35.454533377   34.223893256   12.457594733
   325  109  1 -0.9040   42.979983848   41.891505855   23.515441142
   326  109  2  0.4520   43.030163310   42.652238325   22.924033751
   327  109  2  0.4520   43.248347186   42.229038228   24.400883437
   328  110  1 -0.9040   48.454537628   29.035149996   16.830506120
   329  110  2  0.4520   47.641695500   29.417491280   17.201803872
   330  110  2  0.4520   48.076800479   28.541195013   15.955206532
   331  111  1 -0.9040   28.360084821   41.139028441   14.241770833
   332  111  2  0.4520   28.736098162   40.783344992   15.047889970
   333  111  2  0.4520   27.830606880   41.928589155   14.435797060
   334  112  1 -0.9040    8.035396344   38.668492908   38.688689808
   335  112  2  0.4520    8.990885209   38.565986022   38.947458046
   336  112  2  0.4520    8.049165758   38.881332931   37.735835560
   337  113  1 -0.9040   24.217565880   12.979180898   36.527759671
   338  113  2  0.4520   23.728220429   13.865256096   36.690864553
   339  113  2  0.4520   23.551065202   12.418010378   36.155097765
   340  114  1 -0.9040    3.645022903    6.992036783   20.490285603
   341  114  2  0.4520    4.359577791    6.392028682   20.844124942
   342  114  2  0.4520    2.866191938    6.940132222   21.109792520
   343  115  1 -0.9040   46.643322054   42.833071539   24.119322108
   344  115  2  0.4520   47.285624301   42.247426437   24.565757418
   345  115  2  0.4520   45.962686189   42.891233245   24.804464273
   346  116  1 -0.9040   23.062293615   24.689225791   17.046572515
   347  116  2  0.4520   23.629977322   24.786517966   17.879015015
   348  116  2  0.4520   23.037067409   23.727913559   17.103833969
   349  117  1 -0.9040   38.876928597    4.445784389   35.690797066
   350  117  2  0.4520   38.451361757    5.076253950   35.033602834
   351  117  2  0.4520   38.549442481    4.719535238   36.550725206
   352  118  1 -0.9040   32.463345425    7.059044186   16.249264203
   353  118  2  0.4520   32.260000611    7.828793413   16.849800027
   354  118  2  0.4520   33.212474173    6.581458912   16.644270057
   355  119  1 -0.9040   48.841644755    9.515996218   12.291929378
   356  119  2  0.4520   49.855557774    9.527002499   12.310175449
   357  119  2  0.4520   48.531871929    8.565596595   12.244312115
   358  120  1 -0.9040   29.825145924   41.752017487   25.001374080
   359  120  2  0.4520   30.316351843   41.609339073   24.153621533
   360  120  2  0.4520   28.986191779   41.305877832   24.856626352
   361  121  1 -0.9040   47.149956994   48.451655873   18.531146733
   362  121  2  0.4520   47.996166611   48.328629800   18.056905854
   363  121  2  0.4520   47.283681159   48.017631305   19.401303615
   364  122  1 -0.9040   30.633101284   25.945014178    7.141359620
   365  122  2  0.4520   31.108126832   25.590195651    7.922843374
   366  122  2  0.4520   29.911710437   25.326403970    7.054466845
   367  123  1 -0.9040    7.560985538   14.242134697   30.740073285
   368  123  2  0.4520    8.493830544   14.456576482   31.120386163
   369  123  2  0.4520    7.791113162   14.126017623   29.759054128
   370  124  1 -0.9040   33.057676325   17.489612783   26.560315480
   371  124  2  0.4520   34.068029059   17.533270971   26.724469068
   372  124  2  0.4520   32.787788570   18.367852355   26.260008006
   373  125  1 -0.9040   29.780525957   30.416402042   37.732202562
   374  125  2  0.4520   29.673999492   30.422130385   38.703239167
   375  125  2  0.4520   28.857563698   30.862589056   37.441832529
   376  126  1 -0.9040   34.247221182   15.171000461    0.093839666
   377  126  2  0.4520   33.547157802   15.728491634    0.479720580
   378  126  2  0.4520   34.059811261   14.295534562    0.489000095
   379  127  1 -0.9040   26.247153296   44.871902070   45.943864361
   380  127  2  0.4520   25.719003407   45.531510376   46.395232159
   381  127  2  0.4520   25.922153021   44.016988353   46.319273213
   382  128  1 -0.9040   19.378098474    2.613451468   26.521577924
   383  128  2  0.4520   18.502760703    2.112489643   26.876559301
   384  128  2  0.4520   20.027828870    2.811966421   27.217798150
   385  129  1 -0.9040   40.995556244   26.761178427   12.155477305
   386  129  2  0.4520   40.682423419   27.172917032   13.029560375
   387  129  2  0.4520   41.888418566   26.468772424   12.334757687
   388  130  1 -0.9040   23.949329999   14.173802437   41.846332943
   389  130  2  0.4520   23.167016943   13.572124060   41.655473436
   390  130  2  0.4520   24.120095016   14.578379810   40.965924459
   391  131  1 -0.9040   41.140728349   49.358295600   17.603552729
   392  131  2  0.4520   41.573283961   49.359865825   18.488026883
   393  131  2  0.4520   40.202354531   48.985439031   17.667205120
   394  132  1 -0.9040   44.991951950    4.598235020    6.060926987
   395  132  2  0.4520   44.602992087    3.674282361    5.923485182
   396  132  2  0.4520   44.491414443    4.944975697    6.851931552
   397  133  1 -0.9040   31.740955431    8.997495649   17.892833012
   398  133  2  0.4520   31.040052814    9.610518036   17.408814642
   399  133  2  0.4520   32.380786842    9.662932680   18.175719080
   400  134  1 -0.9040   20.900905470   23.881965179   26.372170002
   401  134  2  0.4520   21.241704107   23.017930205   26.267660830
   402  134  2  0.4520   21.078411611   24.352357673   25.533950768
   403  135  1 -0.9040   32.404499950   13.879839782   23.801193994
   404  135  2  0.4520   32.679980094   14.300737946   24.647806253
   405  135  2  0.4520   32.886056515   13.048878760   23.787985448
   406  136  1 -0.9040   49.130860540   41.668126777   42.504564940
   407  136  2  0.4520   49.902039833   41.160450445   42.857025155
   408  136  2  0.4520   49.409982690   42.078140325   41.686770882
   409  137  1 -0.9040   10.038308799   30.851522600   45.940963129
   410  137  2  0.4520    9.075698597   30.636306046   45.812668181
   411  137  2  0.4520   10.248768352   31.587258875   45.324236619
   412  138  1 -0.9040   20.096368361   49.905588657   21.306812504
   413  138  2  0.4520   19.370994586   49.288311358   20.868297089
   414  138  2  0.4520   19.738923674   50.039009711   22.199629285
   415  139  1 -0.9040    9.953951671   49.583770105   22.842472629
   416  139  2  0.4520   10.301168743   49.032521141   22.023058046
   417  139  2  0.4520   10.601655551   49.297601900   23.547813888
   418  140  1 -0.9040   14.693519112   27.073485505   16.393599925
   419  140  2  0.4520   15.367519880   27.474145167   15.781076412
   420  140  2  0.4520   14.364179595   27.825839147   17.002764416
   421  141  1 -0.9040   12.479973847    9.188467742   15.147179951
   422  141  2  0.4520   12.040620448   10.002314459   15.461050398
   423  141  2  0.4520   12.225649367    9.198334327   14.150417426
   424  142  1 -0.9040   30.309485045    8.698451129   39.781000998
   425  142  2  0.4520   29.730700115    8.721024875   40.594775761
   426  142  2  0.4520   29.877432659    9.223153282   39.092300965
   427  143  1 -0.9040   14.760091013   22.850657156   44.571652931
   428  143  2  0.4520   14.140042609   22.533895477   43.902623068
   429  143  2  0.4520   14.592964707   23.806690204   44.618447075
   430  144  1 -0.9040   36.081786662   21.235592230   28.140298193
   431  144  2  0.4520   35.305483541   21.431137848   28.679068817
   432  144  2  0.4520   35.692959011   21.428327481   27.248895755
   433  145  1 -0.9040    3.209017312   21.361042287   20.711323820
   434  145  2  0.4520    2.749852119   21.373071096   19.784536752
   435  145  2  0.4520    2.461173364   21.401695525   21.353227425